# vtk DataFile Version 2.0
simple 2D grid with  point scalar data 
ASCII
           
DATASET UNSTRUCTURED_GRID
POINTS 8 float 
0 0 2 
1 0 2
1 1 2
0 1 2
2 0 2 
3 0 2
3 1 2
2 1 2

CELLS 6 24
3 0 1 2
3 0 2 3
3 1 4 2
3 4 7 2
3 4 5 7
3 5 6 7

CELL_TYPES 6
5 5 5 5 5 5 

POINT_DATA 8
SCALARS temperature  float 1
LOOKUP_TABLE default
1.0 2.0 2.0 1.0 3.0 4.0 4.0 3.0


